# vtk DataFile Version 4.0
vtk output
ASCII
DATASET UNSTRUCTURED_GRID
POINTS 156 double
0 -0.5 0 0 -0.46 0 0 -0.42 0 0 -0.38 0 0 -0.34 0 0 -0.3 0 0 -0.26 0 0 -0.22 0 0 -0.18 0 0 -0.14 0 0 -0.1 0 0 -0.06 0 0 -0.02 0 0 0.02 0 0 0.06 0 0 0.1 0 0 0.14 0 0 0.18 0 0 0.22 0 0 0.26 0 0 0.3 0 0 0.34 0 0 0.38 0 0 0.42 0 0 0.46 0 0 0.5 0 0.6 -0.42 0 0.6 -0.3864 0 0.6 -0.3528 0 0.6 -0.3192 0 0.6 -0.2856 0 0.6 -0.252 0 0.6 -0.2184 0 0.6 -0.1848 0 0.6 -0.1512 0 0.6 -0.1176 0 0.6 -0.084 0 0.6 -0.0504 0 0.6 -0.0168 0 0.6 0.0168 0 0.6 0.0504 0 0.6 0.084 0 0.6 0.1176 0 0.6 0.1512 0 0.6 0.1848 0 0.6 0.2184 0 0.6 0.252 0 0.6 0.2856 0 0.6 0.3192 0 0.6 0.3528 0 0.6 0.3864 0 0.6 0.42 0 1.2 -0.43 0 1.2 -0.3956 0 1.2 -0.3612 0 1.2 -0.3268 0 1.2 -0.2924 0 1.2 -0.258 0 1.2 -0.2236 0 1.2 -0.1892 0 1.2 -0.1548 0 1.2 -0.1204 0 1.2 -0.086 0 1.2 -0.0516 0 1.2 -0.0172 0 1.2 0.0172 0 1.2 0.0516 0 1.2 0.086 0 1.2 0.1204 0 1.2 0.1548 0 1.2 0.1892 0 1.2 0.2236 0 1.2 0.258 0 1.2 0.2924 0 1.2 0.3268 0 1.2 0.3612 0 1.2 0.3956 0 1.2 0.43 0 1.8 -0.53 0 1.8 -0.4876 0 1.8 -0.4452 0 1.8 -0.4028 0 1.8 -0.3604 0 1.8 -0.318 0 1.8 -0.2756 0 1.8 -0.2332 0 1.8 -0.1908 0 1.8 -0.1484 0 1.8 -0.106 0 1.8 -0.0636 0 1.8 -0.0212 0 1.8 0.0212 0 1.8 0.0636 0 1.8 0.106 0 1.8 0.1484 0 1.8 0.1908 0 1.8 0.2332 0 1.8 0.2756 0 1.8 0.318 0 1.8 0.3604 0 1.8 0.4028 0 1.8 0.4452 0 1.8 0.4876 0 1.8 0.53 0 2.4 -0.72 0 2.4 -0.6624 0 2.4 -0.6048 0 2.4 -0.5472 0 2.4 -0.4896 0 2.4 -0.432 0 2.4 -0.3744 0 2.4 -0.3168 0 2.4 -0.2592 0 2.4 -0.2016 0 2.4 -0.144 0 2.4 -0.0864 0 2.4 -0.0288 0 2.4 0.0288 0 2.4 0.0864 0 2.4 0.144 0 2.4 0.2016 0 2.4 0.2592 0 2.4 0.3168 0 2.4 0.3744 0 2.4 0.432 0 2.4 0.4896 0 2.4 0.5472 0 2.4 0.6048 0 2.4 0.6624 0 2.4 0.72 0 3 -1 0 3 -0.92 0 3 -0.84 0 3 -0.76 0 3 -0.68 0 3 -0.6 0 3 -0.52 0 3 -0.44 0 3 -0.36 0 3 -0.28 0 3 -0.2 0 3 -0.12 0 3 -0.04 0 3 0.04 0 3 0.12 0 3 0.2 0 3 0.28 0 3 0.36 0 3 0.44 0 3 0.52 0 3 0.6 0 3 0.68 0 3 0.76 0 3 0.84 0 3 0.92 0 3 1 0 
Cells 125 625
4 0 26 27 1 
4 1 27 28 2 
4 2 28 29 3 
4 3 29 30 4 
4 4 30 31 5 
4 5 31 32 6 
4 6 32 33 7 
4 7 33 34 8 
4 8 34 35 9 
4 9 35 36 10 
4 10 36 37 11 
4 11 37 38 12 
4 12 38 39 13 
4 13 39 40 14 
4 14 40 41 15 
4 15 41 42 16 
4 16 42 43 17 
4 17 43 44 18 
4 18 44 45 19 
4 19 45 46 20 
4 20 46 47 21 
4 21 47 48 22 
4 22 48 49 23 
4 23 49 50 24 
4 24 50 51 25 
4 26 52 53 27 
4 27 53 54 28 
4 28 54 55 29 
4 29 55 56 30 
4 30 56 57 31 
4 31 57 58 32 
4 32 58 59 33 
4 33 59 60 34 
4 34 60 61 35 
4 35 61 62 36 
4 36 62 63 37 
4 37 63 64 38 
4 38 64 65 39 
4 39 65 66 40 
4 40 66 67 41 
4 41 67 68 42 
4 42 68 69 43 
4 43 69 70 44 
4 44 70 71 45 
4 45 71 72 46 
4 46 72 73 47 
4 47 73 74 48 
4 48 74 75 49 
4 49 75 76 50 
4 50 76 77 51 
4 52 78 79 53 
4 53 79 80 54 
4 54 80 81 55 
4 55 81 82 56 
4 56 82 83 57 
4 57 83 84 58 
4 58 84 85 59 
4 59 85 86 60 
4 60 86 87 61 
4 61 87 88 62 
4 62 88 89 63 
4 63 89 90 64 
4 64 90 91 65 
4 65 91 92 66 
4 66 92 93 67 
4 67 93 94 68 
4 68 94 95 69 
4 69 95 96 70 
4 70 96 97 71 
4 71 97 98 72 
4 72 98 99 73 
4 73 99 100 74 
4 74 100 101 75 
4 75 101 102 76 
4 76 102 103 77 
4 78 104 105 79 
4 79 105 106 80 
4 80 106 107 81 
4 81 107 108 82 
4 82 108 109 83 
4 83 109 110 84 
4 84 110 111 85 
4 85 111 112 86 
4 86 112 113 87 
4 87 113 114 88 
4 88 114 115 89 
4 89 115 116 90 
4 90 116 117 91 
4 91 117 118 92 
4 92 118 119 93 
4 93 119 120 94 
4 94 120 121 95 
4 95 121 122 96 
4 96 122 123 97 
4 97 123 124 98 
4 98 124 125 99 
4 99 125 126 100 
4 100 126 127 101 
4 101 127 128 102 
4 102 128 129 103 
4 104 130 131 105 
4 105 131 132 106 
4 106 132 133 107 
4 107 133 134 108 
4 108 134 135 109 
4 109 135 136 110 
4 110 136 137 111 
4 111 137 138 112 
4 112 138 139 113 
4 113 139 140 114 
4 114 140 141 115 
4 115 141 142 116 
4 116 142 143 117 
4 117 143 144 118 
4 118 144 145 119 
4 119 145 146 120 
4 120 146 147 121 
4 121 147 148 122 
4 122 148 149 123 
4 123 149 150 124 
4 124 150 151 125 
4 125 151 152 126 
4 126 152 153 127 
4 127 153 154 128 
4 128 154 155 129 
CELL_TYPES 125
9 
9 
9 
9 
9 
9 
9 
9 
9 
9 
9 
9 
9 
9 
9 
9 
9 
9 
9 
9 
9 
9 
9 
9 
9 
9 
9 
9 
9 
9 
9 
9 
9 
9 
9 
9 
9 
9 
9 
9 
9 
9 
9 
9 
9 
9 
9 
9 
9 
9 
9 
9 
9 
9 
9 
9 
9 
9 
9 
9 
9 
9 
9 
9 
9 
9 
9 
9 
9 
9 
9 
9 
9 
9 
9 
9 
9 
9 
9 
9 
9 
9 
9 
9 
9 
9 
9 
9 
9 
9 
9 
9 
9 
9 
9 
9 
9 
9 
9 
9 
9 
9 
9 
9 
9 
9 
9 
9 
9 
9 
9 
9 
9 
9 
9 
9 
9 
9 
9 
9 
9 
9 
9 
9 
9 
POINT_DATA 156
FIELD FieldData 1
disp 1 156 double
10 10 10 10 10 10 10 10 10 10 10 10 10 10 10 10 10 10 10 10 10 10 10 10 10 10 -2.772418495 -2.849925974 -2.917060562 -2.974945869 -3.024554863 -3.066724993 -3.102171142 -3.131496646 -3.155202545 -3.173695248 -3.187292721 -3.196229317 -3.200659331 -3.200659331 -3.196229317 -3.187292721 -3.173695248 -3.155202545 -3.131496646 -3.102171142 -3.066724993 -3.024554863 -2.974945869 -2.917060562 -2.849925974 -2.772418495 -17.50078056 -17.42266159 -17.35362354 -17.29288366 -17.23978367 -17.19377288 -17.15439393 -17.12127066 -17.09409804 -17.07263382 -17.05669191 -17.04613713 -17.04088144 -17.04088144 -17.04613713 -17.05669191 -17.07263382 -17.09409804 -17.12127066 -17.15439393 -17.19377288 -17.23978367 -17.29288366 -17.35362354 -17.42266159 -17.50078056 -30.56134906 -30.38259603 -30.2198088 -30.07278854 -29.94131565 -29.82516249 -29.72410398 -29.63792635 -29.5664344 -29.50945724 -29.46685297 -29.4385122 -29.42436061 -29.42436061 -29.4385122 -29.46685297 -29.50945724 -29.5664344 -29.63792635 -29.72410398 -29.82516249 -29.94131565 -30.07278854 -30.2198088 -30.38259603 -30.56134906 -40.93162748 -40.64440389 -40.3826286 -40.14586243 -39.93372591 -39.74589384 -39.58209033 -39.44208439 -39.32568587 -39.23274203 -39.1631344 -39.11677642 -39.09361142 -39.09361142 -39.11677642 -39.1631344 -39.23274203 -39.32568587 -39.44208439 -39.58209033 -39.74589384 -39.93372591 -40.14586243 -40.3826286 -40.64440389 -40.93162748 -49.10006365 -48.69095036 -48.30161721 -47.93646975 -47.59920668 -47.292908 -47.02011403 -46.78289542 -46.5829143 -46.42147642 -46.29957457 -46.21792316 -46.17698413 -46.17698413 -46.21792316 -46.29957457 -46.42147642 -46.5829143 -46.78289542 -47.02011403 -47.292908 -47.59920668 -47.93646975 -48.30161721 -48.69095036 -49.10006365 